! Touchstone file exported from HFSS 2022.1.0
!        File:           E:/Users/dezanche/Documents/Ansoft/Elliptical_Birdcage_Coil_36ports.aedt
!        Generated:      5:24:38 PM  Jan 17, 2024
!        Design:         HFSSDesign1
!        Project:        Elliptical_Birdcage_Coil_36ports
!        Setup:          Setup4
!        Solution:       Sweep
!
! Variables:
!        D1 = 332.78mm
!        D2 = 517.78mm
!        SH1 = 582.26mm
!        SH2 = 397.26mm
!        SH_height = 460mm
!        Zin = 0.1ohm
!        Zport = 2ohm
!        a = 258.89mm
!        alpha1 = 0.04884rad
!        alpha2 = 0.05925rad
!        alpha3 = 0.07394rad
!        b = 166.39mm
!        bore_height = 1000mm
!        bore_radius = 300mm
!        cap1 = 23.9pF
!        cap2 = 21.6pF
!        cap3 = 18pF
!        cap4 = 17.1pF
!        cap_leg1 = 40pF
!        cap_leg2 = 40pF
!        cap_leg3 = 40pF
!        cap_size = 2mm
!        coil_height = 400mm
!        er_width = 0.5in
!        leg_thickness = 0.3mm
!        num_legs = 12
!        separation_angle = 0.523598775598299
!
# GHz S MA R 50.000000
! Terminal data exported
! Port[1] = 1
! Port[2] = 2
! Port[3] = 3
! Port[4] = 4
! Port[5] = 5
! Port[6] = 6
! Port[7] = 7
! Port[8] = 8
! Port[9] = 9
! Port[10] = 10
! Port[11] = 11
! Port[12] = 12
! Port[13] = 13
! Port[14] = 14
! Port[15] = 15
! Port[16] = 16
! Port[17] = 17
! Port[18] = 18
! Port[19] = 19
! Port[20] = 20
! Port[21] = 21
! Port[22] = 22
! Port[23] = 23
! Port[24] = 24
! Port[25] = 25
! Port[26] = 26
! Port[27] = 27
! Port[28] = 28
! Port[29] = 29
! Port[30] = 30
! Port[31] = 31
! Port[32] = 32
! Port[33] = 33
! Port[34] = 34
! Port[35] = 35
! Port[36] = 36
0.1                            0.629299737251616 11.9155714676804 0.252183573404169 166.981995072847 0.157816042497643 159.416733367602 0.100864835444419 131.85735658518  
                               0.0887382683940902 94.9980540804419 0.0959074101933401 74.3930375142638 0.0996282532270489 68.7557419726447 0.0959169186984405 74.4027266209232 
                               0.0887189278654652 95.0189420555556 0.100838948220031 131.854696378685 0.1578094276693  159.423091929683 0.252194332722109 166.986258175132 
                               0.370599439020188 -77.2821335548716 0.115659728930374 -101.131479417097 0.0432359998415933 -179.698054171881 0.0617431287918947 108.346507266579 
                               0.0865978383701932 79.3808307293932 0.10184580832543 66.8589991266282 0.106551324651596 63.3704072924478 0.10187225051354 66.849898173522  
                               0.0866845994045227 79.3662758571445 0.061851872511552 108.281808490112 0.0432779614944415 -179.841366818784 0.11560300965279 -101.149628241558 
                               0.241193673914315 119.925218773926 0.0970704075781708 130.818458148721 0.0413178687733402 139.675373676501 0.0165765688323378 145.994206583175 
                               0.00625879011835933 149.927225951812 0.00164170913595087 153.035056146114 0.00165148828975508 -27.2549715353911 0.00624767684290513 -29.8207262795248 
                               0.0165917056945634 -33.9543358017524 0.0413496958168338 -40.3498923585788 0.0971453584555338 -49.1660861191858 0.241264637109035 -60.0590507173629 
                               0.252183573404169 166.981995072847 0.637594875974885 11.3978845516421 0.245466880327856 165.789066119315 0.153104526582666 156.008207810605 
                               0.0992979262418757 128.139210258478 0.0877589102445501 94.0498685548539 0.095911476662279 74.4034298335693 0.102838284611804 68.6549070920375 
                               0.100205835367762 74.5820072284668 0.0900204143965585 97.5031061839071 0.103112673366185 136.371687249648 0.161033051288858 161.277879714865 
                               0.115569884763216 -101.146188501064 0.365733617764999 -79.7288872761382 0.118361720062781 -108.496131043453 0.046628110872836 175.305527934972 
                               0.0620088913045404 104.6664420297   0.0859230255333182 77.9230576968766 0.101843687234431 66.8595280784691 0.109167008324529 63.7345919813102 
                               0.105409942368473 67.8214716800232 0.087199800646867 81.8990149211555 0.0602107515866115 112.183124950756 0.0408778681991765 -176.509735362274 
                               0.231066802595976 -62.5451528032842 0.240644020203388 119.792767260952 0.0936034505558628 127.392167454441 0.037452859576034 134.371223818669 
                               0.015271687325126 141.141800936608 0.00635521202711723 150.300477630654 0.00195474006474567 162.36098768687  0.00156803352917731 -30.6388001355038 
                               0.00704594218951834 -25.2252252899912 0.0184049414816739 -29.7506750726874 0.042101943009165 -38.0807383559851 0.0932382793644399 -50.7339857618531 
                               0.157816042497643 159.416733367602 0.245466880327856 165.789066119315 0.650310183906803 10.1926602828971 0.241762729051836 164.990662324718 
                               0.15161968992972 154.526784224482 0.0992815387729792 128.130176765747 0.0887329435094801 95.0083947132955 0.100221424309361 74.5818600019056 
                               0.11003418100618 68.2069498511864 0.104501429843421 74.6727584836363 0.0906016944516568 99.0789179328672 0.103116787851495 136.373573707078 
                               0.0432450069131559 -179.88753514506 0.11824383053481 -108.520930830323 0.358552221187858 -84.9748062181848 0.122955767600035 -115.043195747357 
                               0.0480279172740789 174.12232439363  0.062032672112167 104.644348629981 0.0866173233294796 79.3770340932493 0.105357959257679 67.8193855059929 
                               0.115320777397202 64.0246847693654 0.109053381852955 68.3276507210918 0.0870516257561534 83.1961006837124 0.0602194079437965 112.168408558668 
                               0.0874759212417678 -55.2721343544006 0.220134801131308 -65.0059047106282 0.228557719193228 116.985543771556 0.0876488563732939 123.365165102979 
                               0.0355942122571562 130.865370614364 0.0152361773751696 141.600861702258 0.00654507888893036 154.141075131121 0.00202294663813666 166.792454135361 
                               0.00194031412810952 -23.3506085859593 0.00755301537356383 -22.447817980426 0.0177603076464411 -29.4525705922709 0.0384368097430907 -41.8869906395191 
                               0.100864835444419 131.857356585181 0.153104526582666 156.008207810605 0.241762729051835 164.990662324718 0.650123347874407 9.66347394691066 
                               0.241726614099249 164.974500000058 0.153046646742649 155.984815175854 0.100852226561045 131.849440567204 0.090034560706291 97.5054122892319 
                               0.104512205293972 74.6639903206372 0.113721483933562 67.7886787409345 0.104495777973231 74.6736247382821 0.09002020722197 97.5153571396562 
                               0.0618705894867316 108.286365953198 0.0466199561861836 175.095362680855 0.122835817095669 -115.077607506762 0.359292452179566 -87.0311034765158 
                               0.122941971797921 -115.060590744222 0.0466340417306241 175.239138059367 0.0617665932195572 108.332582331401 0.0871009818720186 81.9027687330265 
                               0.10899891028036 68.317107497373  0.118612288162261 63.8173051511595 0.109045869360856 68.3313325891336 0.0872013127827156 81.9098695879718 
                               0.0357897248110771 -47.1589915891048 0.085522221236377 -57.921567522139 0.222961558087646 -64.4587884215901 0.222873130984388 115.531641690597 
                               0.0854874791014487 122.0678498433   0.0357515727068769 132.820198065731 0.0158621733351609 146.103839589576 0.00704129091274395 157.8476923266   
                               0.00201576850176393 163.556110900741 0.00201321923383517 -16.3849688481858 0.00704300513187154 -22.0524837953792 0.015895726217374 -33.8727833321018 
                               0.0887382683940917 94.9980540804426 0.0992979262418771 128.139210258478 0.15161968992972 154.526784224482 0.241726614099248 164.974500000058 
                               0.650300645171685 10.183986984775  0.245404849538418 165.78306007869  0.157807860781584 159.425580213305 0.103114199275827 136.378293971148 
                               0.0906018415363961 99.0631780714694 0.104493004977046 74.6750973444544 0.110024161727008 68.1982942673343 0.100201972431688 74.5710575314679 
                               0.0867063888807679 79.3638640327904 0.0621240273781587 104.573511277463 0.0480017423062513 173.935003045241 0.12283712978829 -115.077849695101 
                               0.358587664823833 -84.9763598626471 0.118350753161756 -108.531060116695 0.0432881154852097 -179.716572778871 0.0601137105212208 112.235511137938 
                               0.0869595182487798 83.195112356321  0.10898851393815 68.3329934141969 0.115323129726244 64.0277400910806 0.105420420838235 67.8230416301599 
                               0.0152525018251776 -38.3987136424355 0.0355976479302514 -49.1179043270853 0.0876756515043066 -56.6280106499092 0.228761228831328 -63.0128028805797 
                               0.220051858121686 114.996166869059 0.0873941468621351 124.712099814194 0.0383914398742512 138.075258435502 0.0177484010789292 150.522726883104 
                               0.00755488368640406 157.608696673164 0.00193828691187264 156.393396324551 0.0020229104609849 -12.8252889249638 0.00656759058782347 -25.9547347082237 
                               0.09590741019334 74.3930375142638 0.08775891024455 94.0498685548539 0.0992815387729791 128.130176765747 0.15304664674265 155.984815175854 
                               0.245404849538419 165.78306007869  0.637595094348235 11.3997077880408 0.252204795111725 166.990056087193 0.161034914246924 161.289548502358 
                               0.103093740439955 136.363142131226 0.0900032060774389 97.516284497768  0.10018750566149 74.564031258639  0.102805436829536 68.6391499653296 
                               0.101876941046051 66.8526031818131 0.0859860144208586 77.8953110727332 0.0621059569298285 104.578658842543 0.04661158973579 175.109204471103 
                               0.118235289117021 -108.525722263279 0.36576547453924 -79.7262024048466 0.115678029969739 -101.137469107189 0.0408869976197713 -176.345341737434 
                               0.0601070045958587 112.222992739378 0.0870853118925972 81.9237050391814 0.105357603933061 67.819067533352  0.109169163100757 63.7345675827156 
                               0.00636260006595527 -29.7296985310282 0.0152661585884478 -38.8024370280775 0.0374581635977743 -45.6131330550692 0.0936533285922028 -52.6187364468729 
                               0.240842958332248 -60.2066423886333 0.230974074114396 117.448974667245 0.0932072242833637 129.243324163208 0.0420787295405502 141.916653054542 
                               0.0183999657669177 150.30389613025  0.00704100272963908 154.665099694608 0.00157348200697578 148.924977958445 0.00196855929231574 -18.1884316078774 
                               0.0996282532270488 68.7557419726447 0.0959114766622789 74.4034298335693 0.0887329435094801 95.0083947132955 0.100852226561044 131.849440567204 
                               0.157807860781585 159.425580213306 0.252204795111725 166.990056087193 0.629207474778743 11.9199061296001 0.252195826250599 166.993072508061 
                               0.157780993099949 159.411106592354 0.100836088976322 131.859905253875 0.0887090453925898 94.9843650948379 0.0958962523865511 74.3861213777923 
                               0.106543962835336 63.3691008508575 0.101866605341447 66.8504494154317 0.0866746202631389 79.3671825046034 0.0618451224445782 108.29737197098  
                               0.0432465555512392 -179.864420964068 0.115611252665557 -101.148499202171 0.370653325174424 -77.274948531596 0.115649168068448 -101.124634173462 
                               0.0432343205521251 -179.722078931422 0.0617415394662568 108.342877444977 0.0866125703900881 79.3590149405596 0.101841557638691 66.8490743565237 
                               0.00164789519570109 -27.0968511077983 0.00625538040906657 -29.9166444076575 0.0165844599287224 -33.9707054584135 0.0413336615898841 -40.3408482284612 
                               0.0971445708048113 -49.1828899963725 0.241349307884926 -60.0498130461786 0.241275208530081 119.934283457835 0.0970950134020967 130.833891523805 
                               0.041323205766081 139.684485747139 0.0165885806382094 145.988105994117 0.00625219483254904 150.092013266665 0.00163618842532038 153.356495902723 
                               0.0959169186984405 74.4027266209232 0.102838284611804 68.6549070920375 0.100221424309361 74.5818600019056 0.090034560706291 97.5054122892317 
                               0.103114199275826 136.378293971149 0.161034914246924 161.289548502358 0.252195826250599 166.993072508061 0.637492793701763 11.4026188413532 
                               0.245468016805321 165.791709212935 0.153096290990139 156.02059507658  0.0992681013672051 128.141097102595 0.0877476423036264 94.0483388771869 
                               0.101839965506801 66.856024028103  0.109163304959413 63.7346868734445 0.105395027805082 67.8253473453628 0.0871829991389758 81.9133402022699 
                               0.0602050612218832 112.170157658864 0.0409009323695647 -176.484431360412 0.115581624481022 -101.145305502669 0.365819768896397 -79.7155377095942 
                               0.118372873397188 -108.49809432751 0.0466363382321235 175.322367673748 0.0620107725720498 104.637079722581 0.0859158992741349 77.9136523656281 
                               0.0019573444173499 162.208855061284 0.00157595593090868 -31.1454532236652 0.00703920325421411 -25.2513061671943 0.0183917122167118 -29.7253566299953 
                               0.042080053595497 -38.1016693461889 0.0932433319991871 -50.7262715659414 0.231116087670435 -62.5269758319161 0.240726085392138 119.809585030735 
                               0.0936092449342616 127.403217340581 0.0374727414134682 134.383275272705 0.0152641253169981 141.205998250649 0.00635100888156545 150.3858193762   
                               0.0887189278654652 95.0189420555556 0.100205835367762 74.5820072284668 0.11003418100618 68.2069498511864 0.104512205293971 74.6639903206368 
                               0.0906018415363974 99.0631780714686 0.103093740439955 136.363142131226 0.157780993099949 159.411106592354 0.245468016805321 165.791709212935 
                               0.650230017308383 10.2070090863253 0.241805545020662 165.014367718233 0.15161669154227 154.550165806064 0.0992696068244912 128.157011494095 
                               0.0865907871117  79.376341101318  0.105336431892202 67.8178487263119 0.115291753135381 64.0232874185562 0.109032138981919 68.3241528196375 
                               0.0870456527059288 83.1675016887912 0.0602008399620901 112.153587169235 0.0432055826568004 -179.897290630742 0.118231603257195 -108.496942247694 
                               0.358646843324614 -84.9652830968897 0.123015664278986 -115.031152288843 0.0480151935703891 174.145203942561 0.0620008866640597 104.658380065735 
                               0.00655034379560096 154.11210101927  0.00202027263329681 167.28409255431  0.00193716590557385 -23.4766996465573 0.00754679068237525 -22.4130413527401 
                               0.0177393226462716 -29.4670851831122 0.0384312424876548 -41.885563266939 0.0874903707601794 -55.2547537354737 0.220226254636173 -64.9985798247325 
                               0.228582346407112 117.001094770947 0.0876849459345844 123.387986435336 0.0355900625046657 130.895219882744 0.0152352004797192 141.639262704503 
                               0.100838948220031 131.854696378685 0.0900204143965586 97.5031061839072 0.104501429843421 74.6727584836363 0.113721483933563 67.7886787409349 
                               0.104493004977046 74.6750973444547 0.0900032060774389 97.516284497768  0.100836088976322 131.859905253875 0.153096290990139 156.02059507658  
                               0.241805545020662 165.014367718233 0.650096162214772 9.68573606823786 0.241721202983489 164.983715383561 0.15304116247496 155.998356797954 
                               0.0617321143518169 108.316640320513 0.0870784205712485 81.8955277287004 0.108963003204895 68.318724675561  0.118581253688159 63.8188301089301 
                               0.109020952331641 68.323793494504  0.0871737171007741 81.9093757276638 0.0618414989016424 108.272121854702 0.046586515337722 175.134273611892 
                               0.122884854838517 -115.048863649243 0.359351727393022 -87.0225197897082 0.122939353293146 -115.038204499757 0.0466016516384963 175.277828685204 
                               0.015870731554733 146.104108742495 0.00703577928757273 157.967442662026 0.00201560286405734 163.703062884209 0.00201234878977909 -16.3753387659575 
                               0.00702870399655716 -21.9849437868416 0.0158894643438286 -33.8581468954147 0.035804909282575 -47.1346240643941 0.0855590641011367 -57.91595393596  
                               0.222968571819254 -64.4518846585412 0.222912252436514 115.545615297302 0.0854882481045759 122.07927854024  0.0357558382363664 132.837788528822 
                               0.1578094276693  159.423091929683 0.103112673366185 136.371687249648 0.0906016944516567 99.0789179328672 0.104495777973231 74.6736247382821 
                               0.110024161727009 68.198294267334  0.10018750566149 74.564031258639  0.0887090453925897 94.9843650948379 0.0992681013672051 128.141097102595 
                               0.15161669154227 154.550165806064 0.241721202983489 164.983715383561 0.650306095299673 10.1958523297472 0.245423181378508 165.784927107507 
                               0.0432462299421556 -179.697442747098 0.060092363129478 112.223006114834 0.0869313152648192 83.1955513209659 0.108965510422309 68.3304397530549 
                               0.115291944400571 64.0225454066712 0.105396745862697 67.8169407217194 0.086685456596492 79.3435595163837 0.0620884244414221 104.557779032088 
                               0.0479829949026466 173.974672408222 0.122840521641206 -115.062939841548 0.358621201127389 -84.9762757790838 0.11836690874066 -108.51150901646 
                               0.0384032680797104 138.077427284897 0.0177420483108621 150.544098376547 0.00755197902987755 157.644818314511 0.00193566189194745 156.510291505674 
                               0.00201595170692176 -12.3813108227382 0.00656060413430032 -25.8982772951428 0.0152622403280027 -38.387761042783 0.0356024120768145 -49.1190189972681 
                               0.0876806899823161 -56.6195483975076 0.22876936684429 -63.0110731306936 0.220059433657872 114.995882866572 0.08740953607444 124.717677383197 
                               0.252194332722109 166.986258175132 0.161033051288858 161.277879714865 0.103116787851495 136.373573707078 0.0900202072219705 97.5153571396565 
                               0.100201972431684 74.5710575314692 0.102805436829536 68.6391499653296 0.0958962523865511 74.3861213777923 0.0877476423036264 94.048338877187  
                               0.0992696068244912 128.157011494095 0.15304116247496 155.998356797954 0.245423181378509 165.784927107507 0.63760819371087 11.4020826507015 
                               0.115666578021988 -101.118694813788 0.0408629124218817 -176.336429106924 0.0600886528233965 112.221374240934 0.0870796731591268 81.9199883711925 
                               0.105335542024163 67.8242585045871 0.109161969850291 63.736243525155  0.101872866095775 66.8451268657637 0.0859743173914602 77.8894579500985 
                               0.0620945589091148 104.585075609601 0.0466028615766777 175.11623997888  0.11828396902605 -108.531037845067 0.365767275635695 -79.7265025707929 
                               0.093205738313675 129.243832137997 0.0420694186415014 141.910613853436 0.0183957362662253 150.309441255765 0.00703477128868936 154.709821599573 
                               0.00158219127258647 148.336607436892 0.00196345772375682 -17.9239143202044 0.00636870390422506 -29.7516021068097 0.0152608135528463 -38.7842506359162 
                               0.0374662810871626 -45.5986181717077 0.0936744499550852 -52.6169842687939 0.240810231037772 -60.1956258757451 0.230966827272611 117.451723808161 
                               0.370599439020188 -77.2821335548716 0.115569884763216 -101.146188501064 0.0432450069131559 -179.88753514506 0.0618705894867315 108.286365953198 
                               0.0867063888807682 79.3638640327893 0.101876941046051 66.8526031818131 0.106543962835336 63.3691008508575 0.101839965506801 66.856024028103  
                               0.0865907871117  79.376341101318  0.0617321143518169 108.316640320513 0.0432462299421556 -179.697442747098 0.115666578021988 -101.118694813788 
                               0.629576367322945 12.1798312959245 0.252039484799613 167.112297083862 0.157643833708713 159.543631325766 0.100712090913544 131.983709038411 
                               0.0885818267927509 95.1108450096872 0.0957713885161893 74.4871993063345 0.0994783514433074 68.8382368523934 0.0957444512081761 74.474658334856  
                               0.0885640116180546 95.0972613841147 0.100679070464635 131.969359793786 0.157633060079555 159.55656594118  0.252061032051874 167.119564531317 
                               0.241301617791261 -59.9580560622842 0.0971842563546124 -49.1079661539266 0.0413846816844222 -40.3604562571918 0.0166183244090915 -34.1194001680323 
                               0.00625457369884512 -30.0678780085933 0.00164783936603055 -27.4629516548233 0.0016404778998023 153.02156961348  0.00626986031710391 149.723256926499 
                               0.0166001018584887 145.811517504954 0.041376118316156 139.660778197062 0.097203559706955 130.896685384449 0.241307780938007 120.034689778566 
                               0.115659728930374 -101.131479417097 0.365733617764998 -79.7288872761381 0.11824383053481 -108.520930830323 0.0466199561861837 175.095362680855 
                               0.0621240273781578 104.573511277463 0.0859860144208586 77.8953110727332 0.101866605341447 66.8504494154317 0.109163304959413 63.7346868734445 
                               0.105336431892202 67.8178487263119 0.0870784205712485 81.8955277287004 0.060092363129478 112.223006114834 0.0408629124218817 -176.336429106924 
                               0.252039484799613 167.112297083862 0.637924144178331 11.6536073981321 0.245288296221758 165.900972915382 0.152913528829895 156.121713659039 
                               0.0991332363240187 128.254425382309 0.08761997534977 94.1366604711333 0.0957535640185275 74.4767670688059 0.102643338070707 68.7211582295877 
                               0.100027176183585 74.6558436077597 0.0898559228293037 97.6007871773388 0.10294572538094 136.501384685482 0.160867981541014 161.407937626283 
                               0.231059117474478 117.55506215836  0.240792899817198 -60.1041116139355 0.0937293080669912 -52.5503661776351 0.0375311171371724 -45.6122827319958 
                               0.0152816225449565 -38.9114958902373 0.00636753458610308 -30.0252272744569 0.00196258634670297 -18.6583778670627 0.00158823156275615 148.249022284872 
                               0.00703816756290906 154.316225418186 0.0184113062023612 150.150986566662 0.042136235940962 141.891133949593 0.0932889647010626 129.31279430037  
                               0.0432359998415934 -179.698054171881 0.118361720062781 -108.496131043453 0.358552221187858 -84.9748062181848 0.122835817095669 -115.077607506762 
                               0.0480017423062504 173.935003045241 0.0621059569298285 104.578658842543 0.0866746202631389 79.3671825046034 0.105395027805082 67.8253473453628 
                               0.115291753135381 64.0232874185562 0.108963003204895 68.318724675561  0.0869313152648192 83.1955513209659 0.0600886528233965 112.221374240934 
                               0.157643833708713 159.543631325766 0.245288296221758 165.900972915382 0.65066232747019 10.4520307507743 0.241565771332958 165.112071538347 
                               0.151427772044037 154.65605433893  0.0991244420140418 128.242760938608 0.0885712333813477 95.095357187029  0.100022925445178 74.6574503482885 
                               0.109837495973897 68.2904629236595 0.104319647740195 74.7676477906617 0.0904340460597185 99.189895887151  0.102962871759246 136.49987895117  
                               0.0875255714148004 124.798395705022 0.2201414359505  115.092939220823 0.228718188442277 -62.9075506879198 0.0877566514181393 -56.5402090216614 
                               0.035634233899739 -49.1278766689565 0.0152713300071012 -38.5540941564624 0.00656527935961211 -26.3302941862879 0.00200337268789764 -13.0363362069622 
                               0.0019401757187926 155.880064914275 0.00754946617184972 157.307973082018 0.0177682117706565 150.356079502322 0.0384664149269871 138.062313471056 
                               0.0617431287918946 108.346507266579 0.046628110872836 175.305527934972 0.122955767600035 -115.043195747357 0.359292452179567 -87.0311034765157 
                               0.122837129788289 -115.077849695101 0.04661158973579 175.109204471103 0.0618451224445782 108.29737197098  0.0871829991389757 81.9133402022699 
                               0.109032138981919 68.3241528196375 0.118581253688158 63.8188301089299 0.108965510422309 68.3304397530549 0.0870796731591268 81.9199883711925 
                               0.100712090913544 131.983709038411 0.152913528829895 156.121713659039 0.241565771332958 165.112071538347 0.650481852815249 9.94646857148212 
                               0.241547986763762 165.117155301097 0.152879986887362 156.121476660479 0.100688641420727 131.973063708272 0.0898536128266019 97.608198911349  
                               0.104325364297093 74.7670036966099 0.113536209320385 67.8949691360526 0.104325022285468 74.7825002739725 0.0898755333378655 97.6281975078013 
                               0.0358365011558661 132.834085401537 0.0855845027233858 122.141079952206 0.222980920401659 115.647621062524 0.222987559068194 -64.3423458559902 
                               0.0855690204258474 -57.8573974935801 0.0358227710420625 -47.1765107841577 0.0159105015646559 -34.0638494258173 0.00702029958413942 -22.4010184776526 
                               0.00200006083752054 -16.781612335983 0.00200943563891138 163.222481629232 0.00703338874412269 157.543376462913 0.0158955689253169 145.933153676532 
                               0.0865978383701932 79.3808307293932 0.0620088913045404 104.6664420297   0.0480279172740789 174.12232439363  0.12294197179792 -115.060590744222 
                               0.358587664823836 -84.9763598626471 0.118235289117021 -108.525722263279 0.0432465555512391 -179.864420964068 0.0602050612218832 112.170157658864 
                               0.0870456527059287 83.1675016887912 0.109020952331641 68.323793494504  0.115291944400571 64.0225454066712 0.105335542024163 67.8242585045871 
                               0.0885818267927508 95.1108450096872 0.0991332363240186 128.254425382309 0.151427772044037 154.65605433893  0.241547986763762 165.117155301097 
                               0.650635822375248 10.4600171874666 0.245262466337664 165.909594749747 0.157624317928873 159.543650537317 0.102933395438962 136.487820729238 
                               0.0904390251106795 99.1671544223094 0.104323658126719 74.7744032090407 0.109853710747076 68.3006614380876 0.100046299385247 74.6743789963534 
                               0.0152716483705118 141.468968494314 0.035640544355461 130.852554690766 0.08773679369366 123.438261525229 0.228754986564777 117.101193283032 
                               0.220184610234813 -64.9037738704836 0.0875061681137528 -55.2054387341218 0.0384779588494488 -41.9084806104023 0.0177506984452159 -29.6440198904683 
                               0.00753379051744242 -22.7683411915361 0.00193882804578474 -23.8855391566327 0.0020103447339862 166.646411344441 0.00654886362061609 153.782379533925 
                               0.10184580832543 66.8589991266281 0.0859230255333184 77.9230576968765 0.062032672112167 104.644348629981 0.046634041730624 175.239138059367 
                               0.118350753161755 -108.531060116695 0.36576547453924 -79.7262024048466 0.115611252665557 -101.148499202171 0.0409009323695647 -176.484431360412 
                               0.0602008399620901 112.153587169235 0.0871737171007741 81.9093757276638 0.105396745862697 67.8169407217194 0.109161969850291 63.736243525155  
                               0.0957713885161893 74.4871993063345 0.0876199753497701 94.1366604711332 0.0991244420140419 128.242760938608 0.152879986887362 156.121476660479 
                               0.245262466337664 165.909594749747 0.637866024138121 11.6588521248623 0.252063504624043 167.128145639876 0.160860702357231 161.419250443055 
                               0.102949986649094 136.499455220816 0.089863566473306 97.6301543428196 0.100055642403147 74.6679056287868 0.102678871178199 68.7377394550989 
                               0.00636284832504641 150.039957124571 0.0152811387449554 141.028479486541 0.0375034696434548 134.35242633305  0.0937111816922993 127.463651137332 
                               0.240824902361828 119.913969800822 0.231066352373785 -62.4376708168039 0.0933049081364706 -50.6570562527967 0.0421189572596275 -38.1140067858488 